                                                                
version 3
run General-0-20250713-18:40:55-595162
attr configname General
attr datetime 20250713-18:40:55
attr datetimef 20250713-184055
attr experiment General
attr inifile omnetpp.ini
attr iterationvars ""
attr iterationvarsd ""
attr iterationvarsf ""
attr measurement ""
attr network HandoverShowcase
attr processid 595162
attr repetition 0
attr replication #0
attr resultdir results
attr runnumber 0
attr seedset 0
config image-path ../../../images
config network HandoverShowcase
config **.mgmt.numChannels 5
config **.ap1.wlan[*].mgmt.ssid "\"AP1\""
config **.ap2.wlan[*].mgmt.ssid "\"AP2\""
config **.ap*.wlan[*].mgmt.beaconInterval 100ms
config *.host*.mobility.typename LinearMobility
config *.host*.mobility.speed 10mps
config *.host*.mobility.initialMovementHeading 0deg
config *.host*.mobility.updateInterval 100ms
config *.host.mobility.constraintAreaMinX 40m
config *.host.mobility.constraintAreaMaxX 600m
config **.analogModel.ignorePartialInterference true
config **.ap1.wlan[*].radio.channelNumber 2
config **.ap2.wlan[*].radio.channelNumber 3
config **.host.wlan[*].radio.channelNumber 0
config **.radio.transmitter.power 2.0mW
config **.networkConfiguratorModule "\"\""
config **.wlan[*].agent.activeScan true
config **.wlan[*].agent.defaultSsid "\"\""
config **.wlan[*].agent.channelsToScan "\"\""
config **.wlan[*].agent.probeDelay 0.1s
config **.wlan[*].agent.minChannelTime 0.15s
config **.wlan[*].agent.maxChannelTime 0.3s
config *.visualizer.physicalLinkVisualizer.displayLinks true
config *.ap*.wlan[*].radio.displayCommunicationRange true

vector 0 HandoverShowcase.host.lo[0].lo rcvdPkFromHl:vector(packetBytes) ETV
attr interpolationmode none
attr recordingmode vector(packetBytes)
attr source packetReceivedFromUpper
attr title "packets received from higher layer, packetBytes"
vector 1 HandoverShowcase.host.lo[0].lo passedUpPk:vector(packetBytes) ETV
attr interpolationmode none
attr recordingmode vector(packetBytes)
attr source packetSentToUpper
attr title "packets passed to higher layer, packetBytes"
vector 2 HandoverShowcase.host.lo[0] packetDropInterfaceDown:vector(packetBytes) ETV
attr interpolationmode none
attr recordingmode vector(packetBytes)
attr source packetDropReasonIsInterfaceDown(packetDropped)
attr title "packet drops: interface down, packetBytes"
vector 3 HandoverShowcase.host.lo[0] packetDropNoCarrier:vector(packetBytes) ETV
attr interpolationmode none
attr recordingmode vector(packetBytes)
attr source packetDropReasonIsNoCarrier(packetDropped)
attr title "packet drops: no carrier, packetBytes"
vector 4 HandoverShowcase.host.wlan[0].agent sentRequest:vector ETV
attr recordingmode vector
attr title "sent requests"
vector 5 HandoverShowcase.host.wlan[0].agent acceptConfirm:vector ETV
attr recordingmode vector
attr title "accepted confirms"
vector 6 HandoverShowcase.host.wlan[0].agent dropConfirm:vector ETV
attr recordingmode vector
attr title "dropped confirms"
vector 7 HandoverShowcase.host.wlan[0].mac.dcf.channelAccess.pendingQueue queueLength:vector ETV
attr autoWarmupFilter false
attr interpolationmode sample-hold
attr recordingmode vector
attr source "warmup(atomic(constant0(packetPushEnded) + count(packetPushStarted) - count(packetPulled) - count(packetRemoved) - count(packetDropped)))"
attr title "queue length"
attr unit pk
vector 8 HandoverShowcase.host.wlan[0].mac.dcf.channelAccess.pendingQueue queueBitLength:vector ETV
attr autoWarmupFilter false
attr interpolationmode sample-hold
attr recordingmode vector
attr source "warmup(atomic(constant0(packetPushEnded) + sum(packetLength(packetPushStarted)) - sum(packetLength(packetPulled)) - sum(packetLength(packetRemoved)) - sum(packetLength(packetDropped))))"
attr title "queue bit length"
attr unit b
vector 9 HandoverShowcase.host.wlan[0].mac.dcf.channelAccess.pendingQueue queueingTime:vector ETV
attr interpolationmode none
attr recordingmode vector
attr source queueingTime(packetPulled)
attr title "queueing times"
attr unit s
vector 10 HandoverShowcase.host.wlan[0].mac.dcf.channelAccess.pendingQueue incomingPacketLengths:vector ETV
attr interpolationmode none
attr recordingmode vector
attr source packetLength(packetPushStarted)
attr title "incoming packet lengths"
attr unit b
vector 11 HandoverShowcase.host.wlan[0].mac.dcf.channelAccess.pendingQueue incomingDataRate:vector ETV
attr interpolationmode linear
attr recordingmode vector
attr source throughput(packetPushStarted)
attr title "incoming datarate"
attr unit bps
vector 12 HandoverShowcase.host.wlan[0].mac.dcf.channelAccess.pendingQueue outgoingPacketLengths:vector ETV
attr interpolationmode none
attr recordingmode vector
attr source packetLength(packetPulled)
attr title "outgoing packet lengths"
attr unit b
vector 13 HandoverShowcase.host.wlan[0].mac.dcf.channelAccess.pendingQueue outgoingDataRate:vector ETV
attr interpolationmode linear
attr recordingmode vector
attr source throughput(packetPulled)
attr title "outgoing datarate"
attr unit bps
vector 14 HandoverShowcase.host.wlan[0].mac.dcf.channelAccess.pendingQueue droppedPacketLengthsQueueOverflow:vector ETV
attr interpolationmode none
attr recordingmode vector
attr source packetLength(packetDropReasonIsQueueOverflow(packetDropped))
attr title "dropped packet lengths: queue overflow"
attr unit b
vector 15 HandoverShowcase.host.wlan[0].mac.dcf.channelAccess.pendingQueue flowQueueingTime:vector ETV
attr interpolationmode none
attr recordingmode vector
attr source queueingTime(demuxFlow(packetPulled))
attr title "flow queueing times"
attr unit s
vector 16 HandoverShowcase.host.wlan[0].mac.dcf.channelAccess.pendingQueue flowIncomingDataRate:vector ETV
attr interpolationmode linear
attr recordingmode vector
attr source throughput(flowPacketLength(demuxFlow(packetPushStarted)))
attr title "flow specific incoming data rate"
attr unit bps
vector 17 HandoverShowcase.host.wlan[0].mac.dcf.channelAccess.pendingQueue flowOutgoingDataRate:vector ETV
attr interpolationmode linear
attr recordingmode vector
attr source throughput(flowPacketLength(demuxFlow(packetPulled)))
attr title "flow specific outgoing data rate"
attr unit bps
vector 18 HandoverShowcase.host.wlan[0].mac.dcf.channelAccess.inProgressFrames queueingTime:vector ETV
attr interpolationmode none
attr recordingmode vector
attr source queueingTime(packetDequeued)
attr title "queueing times"
vector 19 HandoverShowcase.host.wlan[0].mac.dcf.channelAccess.inProgressFrames queueLength:vector ETV
attr autoWarmupFilter false
attr interpolationmode sample-hold
attr recordingmode vector
attr source "warmup(count(packetEnqueued) - count(packetDequeued))"
attr title "queue length"
vector 20 HandoverShowcase.host.wlan[0].mac.dcf.channelAccess.contention backoffPeriodGenerated:vector ETV
attr interpolationmode none
attr recordingmode vector
attr title "backoff periods"
vector 21 HandoverShowcase.host.wlan[0].mac.dcf.channelAccess.contention backoffActive:vector ETV
attr autoWarmupFilter false
attr interpolationmode sample-hold
attr recordingmode vector
attr source warmup(count(backoffStarted)-count(backoffStopped))
attr title "backoff active"
vector 22 HandoverShowcase.host.wlan[0].mac.dcf.channelAccess.contention stateChanged:vector ETV
attr enum IDLE,DEFER,IFS_AND_BACKOFF
attr interpolationmode none
attr recordingmode vector
attr title "contention state changed"
attr type enum
vector 23 HandoverShowcase.host.wlan[0].mac.dcf.recipientMacDataService packetDropDuplicateDetected:vector(packetBytes) ETV
attr interpolationmode none
attr recordingmode vector(packetBytes)
attr source packetDropReasonIsDuplicateDetected(packetDropped)
attr title "packet drops: duplicate detected, packetBytes"
vector 24 HandoverShowcase.host.wlan[0].mac.dcf.recoveryProcedure contentionWindowChanged:vector ETV
attr interpolationmode sample-hold
attr recordingmode vector
attr title "contention window"
vector 25 HandoverShowcase.host.wlan[0].mac.dcf packetSentToPeer:vector(packetBytes) ETV
attr interpolationmode none
attr recordingmode vector(packetBytes)
attr title "packets sent, packetBytes"
vector 26 HandoverShowcase.host.wlan[0].mac.dcf packetSentToPeerUnicast:vector(packetBytes) ETV
attr interpolationmode none
attr recordingmode vector(packetBytes)
attr source ieee80211Unicast(packetSentToPeer)
attr title "packets sent: unicast, packetBytes"
vector 27 HandoverShowcase.host.wlan[0].mac.dcf packetSentToPeerMulticast:vector(packetBytes) ETV
attr interpolationmode none
attr recordingmode vector(packetBytes)
attr source ieee80211Multicast(packetSentToPeer)
attr title "packets sent: multicast, packetBytes"
vector 28 HandoverShowcase.host.wlan[0].mac.dcf packetSentToPeerBroadcast:vector(packetBytes) ETV
attr interpolationmode none
attr recordingmode vector(packetBytes)
attr source ieee80211Broadcast(packetSentToPeer)
attr title "packets sent: broadcast , packetBytes"
vector 29 HandoverShowcase.host.wlan[0].mac.dcf packetSentToPeerWithRetry:vector(packetBytes) ETV
attr interpolationmode none
attr recordingmode vector(packetBytes)
attr source ieee80211Retry(packetSentToPeer)
attr title "packets sent: with retry, packetBytes"
vector 30 HandoverShowcase.host.wlan[0].mac.dcf packetSentToPeerWithoutRetry:vector(packetBytes) ETV
attr interpolationmode none
attr recordingmode vector(packetBytes)
attr source ieee80211NotRetry(packetSentToPeer)
attr title "packets sent: without retry, packetBytes"
vector 31 HandoverShowcase.host.wlan[0].mac.dcf packetReceivedFromPeer:vector(packetBytes) ETV
attr interpolationmode none
attr recordingmode vector(packetBytes)
attr title "packets received, packetBytes"
vector 32 HandoverShowcase.host.wlan[0].mac.dcf packetReceivedFromPeerUnicast:vector(packetBytes) ETV
attr interpolationmode none
attr recordingmode vector(packetBytes)
attr source ieee80211Unicast(packetReceivedFromPeer)
attr title "packets received: unicast, packetBytes"
vector 33 HandoverShowcase.host.wlan[0].mac.dcf packetReceivedFromPeerMulticast:vector(packetBytes) ETV
attr interpolationmode none
attr recordingmode vector(packetBytes)
attr source ieee80211Multicast(packetReceivedFromPeer)
attr title "packets received: multicast, packetBytes"
vector 34 HandoverShowcase.host.wlan[0].mac.dcf packetReceivedFromPeerBroadcast:vector(packetBytes) ETV
attr interpolationmode none
attr recordingmode vector(packetBytes)
attr source ieee80211Broadcast(packetReceivedFromPeer)
attr title "packets received: broadcast, packetBytes"
vector 35 HandoverShowcase.host.wlan[0].mac.dcf packetReceivedFromPeerWithRetry:vector(packetBytes) ETV
attr interpolationmode none
attr recordingmode vector(packetBytes)
attr source ieee80211Retry(packetReceivedFromPeer)
attr title "packets received: with retry, packetBytes"
vector 36 HandoverShowcase.host.wlan[0].mac.dcf packetReceivedFromPeerWithoutRetry:vector(packetBytes) ETV
attr interpolationmode none
attr recordingmode vector(packetBytes)
attr source ieee80211NotRetry(packetReceivedFromPeer)
attr title "packets received: without retry, packetBytes"
vector 37 HandoverShowcase.host.wlan[0].mac.dcf packetDrop:vector(packetBytes) ETV
attr interpolationmode none
attr recordingmode vector(packetBytes)
attr source packetDropped
attr title "packet drops, packetBytes"
vector 38 HandoverShowcase.host.wlan[0].mac.dcf packetDropNotAddressedToUs:vector(packetBytes) ETV
attr interpolationmode none
attr recordingmode vector(packetBytes)
attr source packetDropReasonIsNotAddressedToUs(packetDropped)
attr title "packet drops: not addressed to us, packetBytes"
vector 39 HandoverShowcase.host.wlan[0].mac.dcf packetDropQueueOverflow:vector(packetBytes) ETV
attr interpolationmode none
attr recordingmode vector(packetBytes)
attr source packetDropReasonIsQueueOverflow(packetDropped)
attr title "packet drops: queue overflow, packetBytes"
vector 40 HandoverShowcase.host.wlan[0].mac.dcf packetDropRetryLimitReached:vector(packetBytes) ETV
attr interpolationmode none
attr recordingmode vector(packetBytes)
attr source packetDropReasonIsRetryLimitReached(packetDropped)
attr title "packet drops: retry limit reached, packetBytes"
vector 41 HandoverShowcase.host.wlan[0].mac.dcf frameSequenceActive:vector ETV
attr autoWarmupFilter false
attr interpolationmode sample-hold
attr recordingmode vector
attr source warmup(count(frameSequenceStarted)-count(frameSequenceFinished))
attr title "frame sequence active"
vector 42 HandoverShowcase.host.wlan[0].mac.dcf datarateSelected:vector ETV
attr interpolationmode none
attr recordingmode vector
attr title "datarates selected"
vector 43 HandoverShowcase.host.wlan[0].mac.rx nav:vector ETV
attr interpolationmode linear
attr recordingmode vector
attr source navChanged
attr title "network allocation vector"
vector 44 HandoverShowcase.host.wlan[0].mac packetSentToUpper:vector(packetBytes) ETV
attr interpolationmode none
attr recordingmode vector(packetBytes)
attr title "packets sent to upper layer, packetBytes"
vector 45 HandoverShowcase.host.wlan[0].mac packetSentToLower:vector(packetBytes) ETV
attr interpolationmode none
attr recordingmode vector(packetBytes)
attr title "packets sent to lower layer, packetBytes"
vector 46 HandoverShowcase.host.wlan[0].mac packetReceivedFromUpper:vector(packetBytes) ETV
attr interpolationmode none
attr recordingmode vector(packetBytes)
attr title "packets received from upper layer, packetBytes"
vector 47 HandoverShowcase.host.wlan[0].mac packetReceivedFromLower:vector(packetBytes) ETV
attr interpolationmode none
attr recordingmode vector(packetBytes)
attr title "packets received from lower layer, packetBytes"
vector 48 HandoverShowcase.host.wlan[0].mac packetDrop:vector(packetBytes) ETV
attr interpolationmode none
attr recordingmode vector(packetBytes)
attr source packetDropped
attr title "packet drops, packetBytes"
vector 49 HandoverShowcase.host.wlan[0].mac packetDropIncorrectlyReceived:vector(packetBytes) ETV
attr interpolationmode none
attr recordingmode vector(packetBytes)
attr source packetDropReasonIsIncorrectlyReceived(packetDropped)
attr title "packet drops: incorrectly received, packetBytes"
vector 50 HandoverShowcase.host.wlan[0].mac packetDropNotAddressedToUs:vector(packetBytes) ETV
attr interpolationmode none
attr recordingmode vector(packetBytes)
attr source packetDropReasonIsNotAddressedToUs(packetDropped)
attr title "packet drops: not addressed to us, packetBytes"
vector 51 HandoverShowcase.host.wlan[0].mac packetDropQueueOverflow:vector(packetBytes) ETV
attr interpolationmode none
attr recordingmode vector(packetBytes)
attr source packetDropReasonIsQueueOverflow(packetDropped)
attr title "packet drops: queue overflow, packetBytes"
vector 52 HandoverShowcase.host.wlan[0].mac packetDropRetryLimitReached:vector(packetBytes) ETV
attr interpolationmode none
attr recordingmode vector(packetBytes)
attr source packetDropReasonIsRetryLimitReached(packetDropped)
attr title "packet drops: retry limit reached, packetBytes"
vector 53 HandoverShowcase.host.wlan[0].mac packetDropDuplicateDetected:vector(packetBytes) ETV
attr interpolationmode none
attr recordingmode vector(packetBytes)
attr source packetDropReasonIsDuplicateDetected(packetDropped)
attr title "packet drops: duplicate detected, packetBytes"
vector 54 HandoverShowcase.host.wlan[0].mac packetDropOther:vector(packetBytes) ETV
attr interpolationmode none
attr recordingmode vector(packetBytes)
attr source packetDropReasonIsOther(packetDropped)
attr title "packet drops: other, packetBytes"
vector 55 HandoverShowcase.host.wlan[0].radio radioMode:vector ETV
attr interpolationmode sample-hold
attr recordingmode vector
attr source radioModeChanged
attr title "Radio mode"
vector 56 HandoverShowcase.host.wlan[0].radio receptionState:vector ETV
attr interpolationmode sample-hold
attr recordingmode vector
attr source receptionStateChanged
attr title "Radio reception state"
vector 57 HandoverShowcase.host.wlan[0].radio transmissionState:vector ETV
attr interpolationmode sample-hold
attr recordingmode vector
attr source transmissionStateChanged
attr title "Radio transmission state"
vector 58 HandoverShowcase.host.wlan[0].radio radioChannel:vector ETV
attr interpolationmode sample-hold
attr recordingmode vector
attr source radioChannelChanged
attr title "Radio channel"
vector 59 HandoverShowcase.host.wlan[0] packetDropInterfaceDown:vector(packetBytes) ETV
attr interpolationmode none
attr recordingmode vector(packetBytes)
attr source packetDropReasonIsInterfaceDown(packetDropped)
attr title "packet drops: interface down, packetBytes"
vector 60 HandoverShowcase.host.wlan[0] packetDropNoCarrier:vector(packetBytes) ETV
attr interpolationmode none
attr recordingmode vector(packetBytes)
attr source packetDropReasonIsNoCarrier(packetDropped)
attr title "packet drops: no carrier, packetBytes"
vector 61 HandoverShowcase.host.ipv4.ip packetDropAddressResolutionFailed:vector(packetBytes) ETV
attr interpolationmode none
attr recordingmode vector(packetBytes)
attr source packetDropReasonIsAddressResolutionFailed(packetDropped)
attr title "packet drop: address resolution failed, packetBytes"
vector 62 HandoverShowcase.host.ipv4.ip packetDropHopLimitReached:vector(packetBytes) ETV
attr interpolationmode none
attr recordingmode vector(packetBytes)
attr source packetDropReasonIsHopLimitReached(packetDropped)
attr title "packet drop: hop limit reached, packetBytes"
vector 63 HandoverShowcase.host.ipv4.ip packetDropForwardingDisabled:vector(packetBytes) ETV
attr interpolationmode none
attr recordingmode vector(packetBytes)
attr source packetDropReasonIsForwardingDisabled(packetDropped)
attr title "packet drop: forwarding disabled, packetBytes"
vector 64 HandoverShowcase.host.ipv4.ip packetDropNoInterfaceFound:vector(packetBytes) ETV
attr interpolationmode none
attr recordingmode vector(packetBytes)
attr source packetDropReasonIsNoInterfaceFound(packetDropped)
attr title "packet drop: no interface found, packetBytes"
vector 65 HandoverShowcase.host.ipv4.ip packetDropNoRouteFound:vector(packetBytes) ETV
attr interpolationmode none
attr recordingmode vector(packetBytes)
attr source packetDropReasonIsNoRouteFound(packetDropped)
attr title "packet drop: no route found, packetBytes"
vector 66 HandoverShowcase.host.ipv4.ip packetDropUndefined:vector(packetBytes) ETV
attr interpolationmode none
attr recordingmode vector(packetBytes)
attr source packetDropReasonIsUndefined(packetDropped)
attr title "packet drop: undefined, packetBytes"
vector 67 HandoverShowcase.host.ipv4.arp arpRequestSent:vector(packetBytes) ETV
attr recordingmode vector(packetBytes)
attr source arpRequestSent
attr title "ARP request sent, packetBytes"
vector 68 HandoverShowcase.host.ipv4.arp arpReplySent:vector(packetBytes) ETV
attr recordingmode vector(packetBytes)
attr source arpReplySent
attr title "ARP replies sent, packetBytes"
vector 69 HandoverShowcase.host.udp packetSent:vector(packetBytes) ETV
attr interpolationmode none
attr recordingmode vector(packetBytes)
attr source packetSent
attr title "packets sent, packetBytes"
vector 70 HandoverShowcase.host.udp packetReceived:vector(packetBytes) ETV
attr interpolationmode none
attr recordingmode vector(packetBytes)
attr source packetReceived
attr title "packets received, packetBytes"
vector 71 HandoverShowcase.host.udp passedUpPk:vector(count) ETV
attr interpolationmode none
attr recordingmode vector(count)
attr source packetSentToUpper
attr title "packets passed up, count"
vector 72 HandoverShowcase.host.udp droppedPkWrongPort:vector(count) ETV
attr interpolationmode none
attr recordingmode vector(count)
attr source packetDropReasonIsNoPortFound(packetDropped)
attr title "packets dropped (wrong port), count"
vector 73 HandoverShowcase.host.udp droppedPkBadChecksum:vector(count) ETV
attr interpolationmode none
attr recordingmode vector(count)
attr source packetDropReasonIsIncorrectlyReceived(packetDropped)
attr title "packets dropped (checksum error), count"
vector 74 HandoverShowcase.ap1.wlan[0].mac.dcf.channelAccess.pendingQueue queueLength:vector ETV
attr autoWarmupFilter false
attr interpolationmode sample-hold
attr recordingmode vector
attr source "warmup(atomic(constant0(packetPushEnded) + count(packetPushStarted) - count(packetPulled) - count(packetRemoved) - count(packetDropped)))"
attr title "queue length"
attr unit pk
vector 75 HandoverShowcase.ap1.wlan[0].mac.dcf.channelAccess.pendingQueue queueBitLength:vector ETV
attr autoWarmupFilter false
attr interpolationmode sample-hold
attr recordingmode vector
attr source "warmup(atomic(constant0(packetPushEnded) + sum(packetLength(packetPushStarted)) - sum(packetLength(packetPulled)) - sum(packetLength(packetRemoved)) - sum(packetLength(packetDropped))))"
attr title "queue bit length"
attr unit b
vector 76 HandoverShowcase.ap1.wlan[0].mac.dcf.channelAccess.pendingQueue queueingTime:vector ETV
attr interpolationmode none
attr recordingmode vector
attr source queueingTime(packetPulled)
attr title "queueing times"
attr unit s
vector 77 HandoverShowcase.ap1.wlan[0].mac.dcf.channelAccess.pendingQueue incomingPacketLengths:vector ETV
attr interpolationmode none
attr recordingmode vector
attr source packetLength(packetPushStarted)
attr title "incoming packet lengths"
attr unit b
vector 78 HandoverShowcase.ap1.wlan[0].mac.dcf.channelAccess.pendingQueue incomingDataRate:vector ETV
attr interpolationmode linear
attr recordingmode vector
attr source throughput(packetPushStarted)
attr title "incoming datarate"
attr unit bps
vector 79 HandoverShowcase.ap1.wlan[0].mac.dcf.channelAccess.pendingQueue outgoingPacketLengths:vector ETV
attr interpolationmode none
attr recordingmode vector
attr source packetLength(packetPulled)
attr title "outgoing packet lengths"
attr unit b
vector 80 HandoverShowcase.ap1.wlan[0].mac.dcf.channelAccess.pendingQueue outgoingDataRate:vector ETV
attr interpolationmode linear
attr recordingmode vector
attr source throughput(packetPulled)
attr title "outgoing datarate"
attr unit bps
vector 81 HandoverShowcase.ap1.wlan[0].mac.dcf.channelAccess.pendingQueue droppedPacketLengthsQueueOverflow:vector ETV
attr interpolationmode none
attr recordingmode vector
attr source packetLength(packetDropReasonIsQueueOverflow(packetDropped))
attr title "dropped packet lengths: queue overflow"
attr unit b
vector 82 HandoverShowcase.ap1.wlan[0].mac.dcf.channelAccess.pendingQueue flowQueueingTime:vector ETV
attr interpolationmode none
attr recordingmode vector
attr source queueingTime(demuxFlow(packetPulled))
attr title "flow queueing times"
attr unit s
vector 83 HandoverShowcase.ap1.wlan[0].mac.dcf.channelAccess.pendingQueue flowIncomingDataRate:vector ETV
attr interpolationmode linear
attr recordingmode vector
attr source throughput(flowPacketLength(demuxFlow(packetPushStarted)))
attr title "flow specific incoming data rate"
attr unit bps
vector 84 HandoverShowcase.ap1.wlan[0].mac.dcf.channelAccess.pendingQueue flowOutgoingDataRate:vector ETV
attr interpolationmode linear
attr recordingmode vector
attr source throughput(flowPacketLength(demuxFlow(packetPulled)))
attr title "flow specific outgoing data rate"
attr unit bps
vector 85 HandoverShowcase.ap1.wlan[0].mac.dcf.channelAccess.inProgressFrames queueingTime:vector ETV
attr interpolationmode none
attr recordingmode vector
attr source queueingTime(packetDequeued)
attr title "queueing times"
vector 86 HandoverShowcase.ap1.wlan[0].mac.dcf.channelAccess.inProgressFrames queueLength:vector ETV
attr autoWarmupFilter false
attr interpolationmode sample-hold
attr recordingmode vector
attr source "warmup(count(packetEnqueued) - count(packetDequeued))"
attr title "queue length"
vector 87 HandoverShowcase.ap1.wlan[0].mac.dcf.channelAccess.contention backoffPeriodGenerated:vector ETV
attr interpolationmode none
attr recordingmode vector
attr title "backoff periods"
vector 88 HandoverShowcase.ap1.wlan[0].mac.dcf.channelAccess.contention backoffActive:vector ETV
attr autoWarmupFilter false
attr interpolationmode sample-hold
attr recordingmode vector
attr source warmup(count(backoffStarted)-count(backoffStopped))
attr title "backoff active"
vector 89 HandoverShowcase.ap1.wlan[0].mac.dcf.channelAccess.contention stateChanged:vector ETV
attr enum IDLE,DEFER,IFS_AND_BACKOFF
attr interpolationmode none
attr recordingmode vector
attr title "contention state changed"
attr type enum
vector 90 HandoverShowcase.ap1.wlan[0].mac.dcf.recipientMacDataService packetDropDuplicateDetected:vector(packetBytes) ETV
attr interpolationmode none
attr recordingmode vector(packetBytes)
attr source packetDropReasonIsDuplicateDetected(packetDropped)
attr title "packet drops: duplicate detected, packetBytes"
vector 91 HandoverShowcase.ap1.wlan[0].mac.dcf.recoveryProcedure contentionWindowChanged:vector ETV
attr interpolationmode sample-hold
attr recordingmode vector
attr title "contention window"
vector 92 HandoverShowcase.ap1.wlan[0].mac.dcf packetSentToPeer:vector(packetBytes) ETV
attr interpolationmode none
attr recordingmode vector(packetBytes)
attr title "packets sent, packetBytes"
vector 93 HandoverShowcase.ap1.wlan[0].mac.dcf packetSentToPeerUnicast:vector(packetBytes) ETV
attr interpolationmode none
attr recordingmode vector(packetBytes)
attr source ieee80211Unicast(packetSentToPeer)
attr title "packets sent: unicast, packetBytes"
vector 94 HandoverShowcase.ap1.wlan[0].mac.dcf packetSentToPeerMulticast:vector(packetBytes) ETV
attr interpolationmode none
attr recordingmode vector(packetBytes)
attr source ieee80211Multicast(packetSentToPeer)
attr title "packets sent: multicast, packetBytes"
vector 95 HandoverShowcase.ap1.wlan[0].mac.dcf packetSentToPeerBroadcast:vector(packetBytes) ETV
attr interpolationmode none
attr recordingmode vector(packetBytes)
attr source ieee80211Broadcast(packetSentToPeer)
attr title "packets sent: broadcast , packetBytes"
vector 96 HandoverShowcase.ap1.wlan[0].mac.dcf packetSentToPeerWithRetry:vector(packetBytes) ETV
attr interpolationmode none
attr recordingmode vector(packetBytes)
attr source ieee80211Retry(packetSentToPeer)
attr title "packets sent: with retry, packetBytes"
vector 97 HandoverShowcase.ap1.wlan[0].mac.dcf packetSentToPeerWithoutRetry:vector(packetBytes) ETV
attr interpolationmode none
attr recordingmode vector(packetBytes)
attr source ieee80211NotRetry(packetSentToPeer)
attr title "packets sent: without retry, packetBytes"
vector 98 HandoverShowcase.ap1.wlan[0].mac.dcf packetReceivedFromPeer:vector(packetBytes) ETV
attr interpolationmode none
attr recordingmode vector(packetBytes)
attr title "packets received, packetBytes"
vector 99 HandoverShowcase.ap1.wlan[0].mac.dcf packetReceivedFromPeerUnicast:vector(packetBytes) ETV
attr interpolationmode none
attr recordingmode vector(packetBytes)
attr source ieee80211Unicast(packetReceivedFromPeer)
attr title "packets received: unicast, packetBytes"
vector 100 HandoverShowcase.ap1.wlan[0].mac.dcf packetReceivedFromPeerMulticast:vector(packetBytes) ETV
attr interpolationmode none
attr recordingmode vector(packetBytes)
attr source ieee80211Multicast(packetReceivedFromPeer)
attr title "packets received: multicast, packetBytes"
vector 101 HandoverShowcase.ap1.wlan[0].mac.dcf packetReceivedFromPeerBroadcast:vector(packetBytes) ETV
attr interpolationmode none
attr recordingmode vector(packetBytes)
attr source ieee80211Broadcast(packetReceivedFromPeer)
attr title "packets received: broadcast, packetBytes"
vector 102 HandoverShowcase.ap1.wlan[0].mac.dcf packetReceivedFromPeerWithRetry:vector(packetBytes) ETV
attr interpolationmode none
attr recordingmode vector(packetBytes)
attr source ieee80211Retry(packetReceivedFromPeer)
attr title "packets received: with retry, packetBytes"
vector 103 HandoverShowcase.ap1.wlan[0].mac.dcf packetReceivedFromPeerWithoutRetry:vector(packetBytes) ETV
attr interpolationmode none
attr recordingmode vector(packetBytes)
attr source ieee80211NotRetry(packetReceivedFromPeer)
attr title "packets received: without retry, packetBytes"
vector 104 HandoverShowcase.ap1.wlan[0].mac.dcf packetDrop:vector(packetBytes) ETV
attr interpolationmode none
attr recordingmode vector(packetBytes)
attr source packetDropped
attr title "packet drops, packetBytes"
vector 105 HandoverShowcase.ap1.wlan[0].mac.dcf packetDropNotAddressedToUs:vector(packetBytes) ETV
attr interpolationmode none
attr recordingmode vector(packetBytes)
attr source packetDropReasonIsNotAddressedToUs(packetDropped)
attr title "packet drops: not addressed to us, packetBytes"
vector 106 HandoverShowcase.ap1.wlan[0].mac.dcf packetDropQueueOverflow:vector(packetBytes) ETV
attr interpolationmode none
attr recordingmode vector(packetBytes)
attr source packetDropReasonIsQueueOverflow(packetDropped)
attr title "packet drops: queue overflow, packetBytes"
vector 107 HandoverShowcase.ap1.wlan[0].mac.dcf packetDropRetryLimitReached:vector(packetBytes) ETV
attr interpolationmode none
attr recordingmode vector(packetBytes)
attr source packetDropReasonIsRetryLimitReached(packetDropped)
attr title "packet drops: retry limit reached, packetBytes"
vector 108 HandoverShowcase.ap1.wlan[0].mac.dcf frameSequenceActive:vector ETV
attr autoWarmupFilter false
attr interpolationmode sample-hold
attr recordingmode vector
attr source warmup(count(frameSequenceStarted)-count(frameSequenceFinished))
attr title "frame sequence active"
vector 109 HandoverShowcase.ap1.wlan[0].mac.dcf datarateSelected:vector ETV
attr interpolationmode none
attr recordingmode vector
attr title "datarates selected"
vector 110 HandoverShowcase.ap1.wlan[0].mac.rx nav:vector ETV
attr interpolationmode linear
attr recordingmode vector
attr source navChanged
attr title "network allocation vector"
vector 111 HandoverShowcase.ap1.wlan[0].mac packetSentToUpper:vector(packetBytes) ETV
attr interpolationmode none
attr recordingmode vector(packetBytes)
attr title "packets sent to upper layer, packetBytes"
vector 112 HandoverShowcase.ap1.wlan[0].mac packetSentToLower:vector(packetBytes) ETV
attr interpolationmode none
attr recordingmode vector(packetBytes)
attr title "packets sent to lower layer, packetBytes"