version 3
run General-0-20250704-17:11:06-566537
attr configname General
attr datetime 20250704-17:11:06
attr datetimef 20250704-171106
attr experiment General
attr inifile simulations/omnetpp.ini
attr iterationvars ""
attr iterationvarsd ""
attr iterationvarsf ""
attr measurement ""
attr network src.MM1
attr processid 566537
attr repetition 0
attr replication #0
attr resultdir results
attr runnumber 0
attr seedset 0
config network src.MM1
config sim-time-limit 100s
config *.gen0.interArrivalTime exponential(2.0s)
config *.gen1.interArrivalTime exponential(2.2s)
config *.gen2.interArrivalTime exponential(2.1s)
config *.queue0.serviceTime exponential(0.9s)
config *.queue1.serviceTime exponential(0.8s)
config *.queue2.serviceTime exponential(0.85s)
config *.splitter.prob 0.6

vector 0 MM1.sink1 Delay ETV
vector 1 MM1.sink2 Delay ETV
0	8	2.715411359842	0.738578505177
0	17	4.003971305176	2.412222296044
0	21	4.742549810353	0.788884101023
0	39	6.669077069172	0.738578505177
0	41	7.407655574349	2.632408546953
0	54	8.645909923837	0.738578505177
0	67	10.622742778502	0.738578505177
0	78	12.372190259511	2.821696204719
0	82	13.110768764688	1.249771636698
0	93	14.045834050378	2.903590986454
0	97	14.784412555555	0.9465825729
0	104	15.719477841245	2.985485768189
0	114	16.553241342497	0.738578505177
0	130	18.530074197162	0.738578505177
0	134	19.268652702339	3.351162611019
0	143	20.506907051827	0.738578505177
0	158	22.414053004713	3.313064895129
0	160	23.15263150989	1.407470108575
0	173	24.08769679558	3.394959676864
0	175	24.826275300757	1.104281044777
0	186	25.761340586447	3.476854458599
0	190	26.499919091624	0.801091980979
0	206	28.414238470487	0.738578505177
0	221	30.391071325152	0.738578505177
0	223	31.129649830329	4.069916675085
0	236	32.367904179817	0.738578505177
0	238	33.106482684994	4.455000520618
0	249	34.129559540782	3.886328367274
0	255	34.868138045959	1.261979516654
0	264	35.803203331649	3.968223149009
0	268	36.541781836826	0.958790452856
0	281	38.298402743812	0.738578505177
0	299	40.275235598477	0.738578505177
0	301	41.013814103654	4.403586893618
0	314	42.252068453142	0.738578505177
0	318	42.990646958319	4.788670739151
0	327	44.171422285984	4.377697057684
0	333	44.910000791161	1.419677988531
0	344	46.205734162472	0.738578505177
0	355	47.518709867718	4.541486621154
0	359	48.257288372895	0.813299860935
0	366	49.192353658585	4.623381402889
0	379	50.159399871802	0.738578505177
0	390	52.136232726467	0.738578505177
0	403	54.113065581132	0.738578505177
0	418	55.886928822053	4.950960529829
0	420	56.62550732723	1.27418739661
0	433	58.066731290462	0.738578505177
0	444	60.043564145127	0.738578505177
0	462	62.020396999792	0.738578505177
0	466	62.758975504969	5.456011176217
0	479	63.997229854457	0.738578505177
0	492	65.974062709122	0.738578505177
0	503	67.602435358122	5.524224001974
0	505	68.341013863299	1.128696804689
0	518	69.276079148989	5.606118783709
0	520	70.014657654166	0.825507740891
0	540	71.904561273117	0.738578505177
0	553	73.881394127782	0.738578505177
0	555	74.619972632959	6.174765240283
0	566	75.858226982447	0.738578505177
0	579	77.835059837112	0.738578505177
0	592	79.317941894191	6.097487474119
0	598	80.056520399368	0.983206212768
0	603	80.991585685058	6.179382255854
0	613	81.788725546442	0.738578505177
0	618	82.665229475925	6.261277037589
0	629	83.765558401107	0.738578505177
0	642	85.742391255772	0.738578505177
0	657	87.686160848526	6.506961382794
0	661	88.424739353703	1.444093748443
0	670	89.359804639393	6.588856164529
0	676	90.09838314457	1.140904684645
0	685	91.03344843026	6.670750946264
0	689	91.772026935437	0.837715620847
0	698	92.707092221127	6.752645727999
0	707	93.649722674432	0.738578505177
0	711	94.388301179609	6.842105677349
0	724	95.626555529097	0.738578505177
0	726	96.365134034274	7.227189522882
0	739	97.603388383762	0.738578505177
0	750	99.580221238427	0.738578505177
1	19	4.296268127402	1.658813535502
1	34	6.597850126368	3.414352108104
1	49	8.25666366187	2.98175447807
1	60	9.915477197372	2.003113421672
1	71	11.574290732874	5.207294696346
1	86	13.233104268376	5.274359222716
1	99	14.891917803878	4.342099436278
1	112	16.55073133938	3.36345837988
1	123	18.209544874882	2.384817323482
1	138	19.868358410384	5.542617328196
1	149	21.527171945886	3.064989802586
1	162	23.185985481388	5.676746380936
1	177	24.84479901689	3.74516228169
1	192	26.503612552392	2.766521225292
1	201	28.162426087894	1.787880168894
1	214	29.821239623396	5.945004486416
1	225	31.480053158898	6.012069012786
1	240	33.1388666944	4.1268661835
1	253	34.797680229902	3.148225127102
1	266	36.456493765404	2.169584070704
1	283	38.397082152841	4.970352961069
1	294	40.055895688343	3.131531401743
1	307	41.714709223845	6.696231022941
1	320	43.373522759347	3.811703880847
1	335	45.032336294849	2.833062824449
1	346	46.691149830351	1.854421768051
1	361	48.349963365853	6.964489128421
1	372	50.008776901355	2.534594247155
1	385	51.770450781602	1.658813535502
1	398	53.429264317104	7.268543052276
1	407	55.088077852606	7.335607578646
1	422	56.746891388108	3.997799550108
1	435	58.40570492361	9.061485640518
1	446	60.064518459112	4.677972029212
1	457	61.723331994614	9.195614693258
1	472	63.382145530116	5.358144508316
1	481	65.040959065618	10.92149275513
1	494	66.69977260112	10.9885572815
1	507	68.358586136622	7.697130522922
1	522	70.017399672124	6.718489466524
1	535	71.676213207626	12.781499869742
1	546	73.335026743128	12.848564396112
1	559	74.99384027863	9.05747548113
1	572	76.652653814132	8.078834424732
1	583	78.311467349634	13.049757975222
1	596	79.970280885136	8.759006903836
1	609	81.629094420638	14.775636037094
1	624	83.28790795614	9.43917938294
1	635	84.946721491642	14.909765089834
1	646	86.605535027144	10.119351862044
1	659	88.264348562646	16.635643151706
1	674	89.923162098148	10.799524341148
1	687	91.58197563365	9.82088328475
1	702	93.240789169152	15.245087721684
1	715	94.899602704654	10.501055763854
1	728	96.558416240156	16.970965783556
1	741	98.217229775658	11.181228242958
1	752	99.87604331116	10.20258718656

